                         Program Version 6.1.0  -  RELEASE   -
|  1> # ----------------------------------------------------
|  2> # OPTIMISATION DU PROTOTYPE 1 : BODIPY de base
|  3> # ----------------------------------------------------
|  4> ! OPT GFN2-xTB
|  5>
|  6> # DÃ©finition des coordonnÃ©es du BODIPY de base
|  7>
|  8> *xyz 0 1 Bod_xtb_opt.xyz
|  9>
| 10>   C          -1.73967631878804      4.87181925127548     -0.32253605844571
| 11>   C          -2.93292785102963      4.17488312527892     -0.18048013821415
| 12>   C          -4.29317197769508      4.56625717032715     -0.06848559316602
| 13>   C          -4.99907902730088      3.44960515725439      0.31982252894957
| 14>   C          -4.06524515416144      2.40349726754923      0.42460933745098
| 15>   C          -0.51969338901086      4.22586102397995     -0.09097881257408
| 16>   C           0.77334737127927      4.71860234328552     -0.29780207657932
| 17>   C           1.66953240462842      3.70293975745927      0.03632098696355
| 18>   C           0.90089529120258      2.62561262507251      0.45685902018100
| 19>   N          -2.85906406657773      2.81463968332016      0.08146905482188
| 20>   N          -0.41672765766357      2.87682423490870      0.39231058760688
| 21>   B          -1.52131411363073      2.02795025477158     -0.20456310092442
| 22>   F          -1.70350503462524      0.77542645227539      0.38958832842934
| 23>   F          -1.23949097823637      1.82886851038091     -1.52850592838567
| 24>   H           2.73717436193573      3.77251822460755      0.00056155608712
| 25>   H           1.24898518500996      1.70457788816432      0.89211231884543
| 26>   H           1.02973828096841      5.69071579901423     -0.67464956635901
| 27>   H          -4.65845055851880      5.55961402428944     -0.23828838163100
| 28>   H          -6.05171025699935      3.40120376157825      0.51066526002464
| 29>   H          -4.24389975039540      1.37590766712682      0.68563228812426
| 30>   H          -1.73362376039126      5.91569477808028     -0.59160361120528
| 31> *
| 32>
| 33>                          ****END OF INPUT****
FINAL SINGLE POINT ENERGY       -39.511355428840
FINAL SINGLE POINT ENERGY       -39.518194996060
FINAL SINGLE POINT ENERGY       -39.522877938880
FINAL SINGLE POINT ENERGY       -39.525389811630
FINAL SINGLE POINT ENERGY       -39.527461604950
FINAL SINGLE POINT ENERGY       -39.528731360440
FINAL SINGLE POINT ENERGY       -39.529625975060
FINAL SINGLE POINT ENERGY       -39.530054787990
FINAL SINGLE POINT ENERGY       -39.530254385020
FINAL SINGLE POINT ENERGY       -39.530401559560
FINAL SINGLE POINT ENERGY       -39.530511920930
FINAL SINGLE POINT ENERGY       -39.530581972020
FINAL SINGLE POINT ENERGY       -39.530617092010
FINAL SINGLE POINT ENERGY       -39.530629782290
FINAL SINGLE POINT ENERGY       -39.530633645610
                    ***********************HURRAY********************

CARTESIAN COORDINATES (ANGSTROEM)
---------------------------------
  C    -1.719242    4.912199   -0.144205
  C    -2.890126    4.178608   -0.044537
  C    -4.245913    4.588330   -0.054253
  C    -5.007781    3.449974    0.075424
  C    -4.115376    2.371514    0.162018
  C    -0.482850    4.288308   -0.110014
  C     0.827202    4.820486   -0.191108
  C     1.696170    3.757309   -0.104421
  C     0.912359    2.601852    0.027484
  N    -2.864229    2.805819    0.090678
  N    -0.375356    2.919042    0.023728
  B    -1.575884    1.945278    0.146139
  F    -1.512721    1.273506    1.345287
  F    -1.563444    1.053452   -0.902216
  H     2.767364    3.785668   -0.130374
  H     1.226659    1.579912    0.121547
  H     1.067484    5.859954   -0.299201
  H    -4.585669    5.601186   -0.146782
  H    -6.076897    3.379906    0.107079
  H    -4.329361    1.325298    0.269619
  H    -1.770296    5.985416   -0.249833

FINAL SINGLE POINT ENERGY       -39.530634782100

DIPOLE MOMENT
-------------
                                X             Y             Z
Total Dipole Moment    :     -0.09500       1.96400      -0.18900
                        -----------------------------------------
Magnitude (a.u.)       :      1.97536
Magnitude (Debye)      :      5.02096

                             ****ORCA TERMINATED NORMALLY****
TOTAL RUN TIME: 0 days 0 hours 0 minutes 0 seconds 987 msec
