                         Program Version 6.1.0  -  RELEASE   -
|  1> ! xtb2 Opt
|  2>
|  3> %maxcore 10000          # Alloue 10000 Mo de RAM pour le calcul
|  4>
|  5> * xyz 0 1               # DÃ©but des coordonnÃ©es : charge 0, multiplicitÃ© 1 (singulet)
|  6> P     -2.371278    8.387714    2.801291
|  7> C     -3.476622   12.950418    3.984137
|  8> C     -3.207668   12.548951    2.537170
|  9> C     -2.327304   11.306785    2.452149
| 10> C     -2.813123   10.144572    3.342494
| 11> C     -4.174190   11.808054    4.721633
| 12> C     -3.330483   10.534361    4.737879
| 13> C     -5.168593    9.241006    1.918905
| 14> C     -6.607737    9.225142    2.449351
| 15> C     -7.219164    7.827485    2.348563
| 16> C     -6.303854    6.770556    2.964084
| 17> C     -4.887099    6.884999    2.396813
| 18> C     -4.282290    8.252587    2.730767
| 19> C      1.422031   10.110570    3.795866
| 20> C      0.360115    9.431197    2.936725
| 21> C     -0.891627    9.078113    3.752146
| 22> C      1.845234    9.204209    4.955039
| 23> C      0.693094    8.588905    5.765026
| 24> C     -0.715819    8.920678    5.275260
| 25> H     -3.901119    2.627657    3.165558
| 26> H     -4.121935   13.853445    3.996460
| 27> H     -2.726762   13.380449    1.980628
| 28> H     -4.401787   12.112774    5.764000
| 29> H     -3.909455    9.708785    5.200322
| 30> H     -2.257221   10.995030    1.388578
| 31> H      0.119562   10.045121    2.046170
| 32> H      2.305567   10.410153    3.194829
| 33> H      2.505654    8.397705    4.569967
| 34> H      0.823787    7.489290    5.852215
| 35> H     -1.527245    8.393022    5.815048
| 36> H     -4.803719    6.603699    1.325767
| 37> H     -6.711695    5.749132    2.821923
| 38> H     -8.214493    7.807743    2.840418
| 39> H     -7.247348    9.940915    1.891402
| 40> H     -4.878601   10.304823    1.886919
| 41> C     -1.845701    6.676537    3.480414
| 42> C     -2.798343    5.504050    3.705291
| 43> C     -3.467978    5.337922    5.049272
| 44> C     -4.328122    4.149371    4.692410
| 45> C     -3.375488    3.286809    3.884305
| 46> C     -0.382006    6.203629    3.535389
| 47> C      0.572700    6.383189    2.367255
| 48> C      1.800264    5.622166    2.837849
| 49> C      1.315251    4.800724    4.023315
| 50> N     -2.416743    4.171137    3.226462
| 51> N     -0.132508    4.897829    4.139914
| 52> B     -0.940801    3.739741    3.482072
| 53> F     -0.816346    2.565076    4.339791
| 54> F     -0.386158    3.367656    2.185287
| 55> H      2.577526    6.315708    3.218901
| 56> H      1.814301    3.853984    4.306827
| 57> H      0.162380    5.882896    1.466546
| 58> H     -4.077202    6.216187    5.339679
| 59> H     -4.795392    3.625399    5.551105
| 60> *
| 61>
| 62>                          ****END OF INPUT****
FINAL SINGLE POINT ENERGY       -86.566484965280
FINAL SINGLE POINT ENERGY       -86.686829865610
FINAL SINGLE POINT ENERGY       -86.790693475450
FINAL SINGLE POINT ENERGY       -86.915901956180
FINAL SINGLE POINT ENERGY       -87.044419933050
FINAL SINGLE POINT ENERGY       -87.145505165660
FINAL SINGLE POINT ENERGY       -87.226184674280
FINAL SINGLE POINT ENERGY       -87.321412134190
FINAL SINGLE POINT ENERGY       -87.378210347500
FINAL SINGLE POINT ENERGY       -87.437527520100
FINAL SINGLE POINT ENERGY       -87.684475508000
FINAL SINGLE POINT ENERGY       -87.684530441860
FINAL SINGLE POINT ENERGY       -87.684583582210
FINAL SINGLE POINT ENERGY       -87.684637234500
FINAL SINGLE POINT ENERGY       -87.684675385060
FINAL SINGLE POINT ENERGY       -87.684697338590
FINAL SINGLE POINT ENERGY       -87.684706738210
FINAL SINGLE POINT ENERGY       -87.684712487730
FINAL SINGLE POINT ENERGY       -87.684716127710
                    ***********************HURRAY********************

CARTESIAN COORDINATES (ANGSTROEM)
---------------------------------
  P    -2.357498    8.245618    3.307368
  C    -3.718151   11.406266    6.320359
  C    -3.566125   11.725731    4.979944
  C    -3.185246   10.750398    4.077581
  C    -2.973088    9.444707    4.517136
  C    -3.473700   10.115142    6.761649
  C    -3.090691    9.132383    5.866216
  C    -4.680361    8.875976    1.805830
  C    -5.484427    8.723692    0.690202
  C    -5.059584    7.950963   -0.378293
  C    -3.827956    7.312991   -0.330681
  C    -3.022197    7.453957    0.781206
  C    -3.434262    8.258888    1.844215
  C     0.700950   10.133228    1.356127
  C    -0.531540    9.556012    1.611463
  C    -0.760535    8.953345    2.841229
  C     1.691090   10.118659    2.324380
  C     1.453739    9.532029    3.558960
  C     0.226909    8.955756    3.823596
  H    -4.608040    3.755030    6.427276
  H    -4.017644   12.168806    7.023457
  H    -3.740235   12.735790    4.639830
  H    -3.578391    9.872000    7.807961
  H    -2.895805    8.126124    6.205910
  H    -3.050309   10.992060    3.030974
  H    -1.305279    9.561780    0.856168
  H     0.887437   10.594561    0.397731
  H     2.651283   10.566737    2.117665
  H     2.226124    9.524211    4.312696
  H     0.027421    8.485557    4.776857
  H    -2.069648    6.943470    0.844699
  H    -3.503814    6.699020   -1.157437
  H    -5.692872    7.835042   -1.244642
  H    -6.449676    9.206759    0.657685
  H    -5.014982    9.477167    2.639675
  C    -2.183394    6.639894    3.992543
  C    -3.321630    6.103570    4.657902
  C    -4.642451    6.564631    4.729169
  C    -5.353142    5.630042    5.476700
  C    -4.454466    4.641149    5.844182
  C    -1.059401    5.801368    3.759771
  C     0.026289    5.888528    2.877208
  C     0.786586    4.737896    3.058589
  C     0.157927    3.989280    4.040045
  N    -3.238367    4.923994    5.341729
  N    -0.955067    4.622714    4.449252
  B    -1.907058    4.187937    5.582192
  F    -1.378455    4.587389    6.807625
  F    -2.085489    2.823268    5.573899
  H     1.686504    4.474196    2.538069
  H     0.432326    3.044773    4.466092
  H     0.214306    6.673020    2.168627
  H    -5.024764    7.451844    4.256707
  H    -6.396705    5.660707    5.722295

FINAL SINGLE POINT ENERGY       -87.684718162810

DIPOLE MOMENT
-------------
                                X             Y             Z
Total Dipole Moment    :     -0.44700       4.61300      -2.58700
                        -----------------------------------------
Magnitude (a.u.)       :      5.30774
Magnitude (Debye)      :     13.49121

                             ****ORCA TERMINATED NORMALLY****
TOTAL RUN TIME: 0 days 0 hours 0 minutes 9 seconds 542 msec
