                         Program Version 6.1.0  -  RELEASE   -
|  1> ! xtb2 Opt
|  2>
|  3> %maxcore 10000          # Alloue 10000 Mo de RAM pour le calcul
|  4>
|  5> * xyz 0 1               # DÃ©but des coordonnÃ©es : charge 0, multiplicitÃ© 1 (singulet)
|  6> C     -4.088304    2.932418   -0.071998
|  7> C     -2.365839    2.884032   -0.144285
|  8> C     -0.299369    2.986564   -0.082554
|  9> C     -4.861814    1.743996   -0.064168
| 10> C      0.637427    2.038270   -0.089465
| 11> C     -0.075351    0.759885    0.023251
| 12> C     -4.565527    0.399465   -0.039846
| 13> N     -3.279763    0.847718   -0.119754
| 14> C     -1.351733    2.019172   -0.122426
| 15> F     -2.999342   -0.712475   -0.046908
| 16> F     -1.440980   -0.809848   -0.367432
| 17> B     -2.291555    0.213657   -0.208175
| 18> I     -6.869077    1.848192    0.323272
| 19> I      2.616939    1.958459    0.329749
| 20> C     -3.278668    1.822856   -0.169534
| 21> N     -1.334585    0.984087   -0.026479
| 22> H     -4.794206    3.742867    0.034152
| 23> H     -2.275101    3.963002   -0.122875
| 24> H      0.445782    3.768565   -0.004415
| 25> H      0.872652    0.201110    0.058698
| 26> H     -5.534520   -0.077430   -0.044024
| 27> *
| 28>
| 29>                          ****END OF INPUT****
FINAL SINGLE POINT ENERGY       -44.469564444850
FINAL SINGLE POINT ENERGY       -44.728959502000
FINAL SINGLE POINT ENERGY       -44.934022205010
FINAL SINGLE POINT ENERGY       -45.167176088780
FINAL SINGLE POINT ENERGY       -45.554521228060
FINAL SINGLE POINT ENERGY       -45.722606291590
FINAL SINGLE POINT ENERGY       -45.765534150680
FINAL SINGLE POINT ENERGY       -45.796059991870
FINAL SINGLE POINT ENERGY       -45.824020920160
FINAL SINGLE POINT ENERGY       -45.907819596050
FINAL SINGLE POINT ENERGY       -46.130464640260
FINAL SINGLE POINT ENERGY       -46.130902861770
FINAL SINGLE POINT ENERGY       -46.131223454230
FINAL SINGLE POINT ENERGY       -46.131509457800
FINAL SINGLE POINT ENERGY       -46.131769934820
FINAL SINGLE POINT ENERGY       -46.131987541910
FINAL SINGLE POINT ENERGY       -46.132194853810
FINAL SINGLE POINT ENERGY       -46.132435808660
FINAL SINGLE POINT ENERGY       -46.132735714380

CARTESIAN COORDINATES (ANGSTROEM)
---------------------------------
  C    -4.766564    2.800002   -0.149514
  C    -2.244940    3.025655   -0.375041
  C     0.295273    2.866547   -0.032806
  C    -5.561963    1.706183    0.118014
  C     1.069723    1.762144    0.255095
  C     0.226201    0.640025    0.260697
  C    -4.722518    0.593773    0.253747
  N    -3.463823    0.969013    0.082201
  C    -1.027245    2.391225   -0.167631
  F    -2.234311   -1.103773    0.203208
  F    -2.254629    0.055080   -1.744066
  B    -2.233706    0.136598   -0.357538
  I    -7.629121    1.660298    0.372206
  I     3.118885    1.695802    0.618083
  C    -3.441688    2.323415   -0.211182
  N    -1.022075    1.019252    0.021258
  H    -5.078509    3.815265   -0.297448
  H    -2.271550    4.087993   -0.560839
  H     0.591582    3.890419   -0.123432
  H     0.486354   -0.387238    0.430339
  H    -4.968309   -0.433118    0.449433

FINAL SINGLE POINT ENERGY       -46.133078687480

DIPOLE MOMENT
-------------
                                X             Y             Z
Total Dipole Moment    :      0.06200       1.69200       0.41600
                        -----------------------------------------
Magnitude (a.u.)       :      1.74349
Magnitude (Debye)      :      4.43160

                             ****ORCA TERMINATED NORMALLY****
TOTAL RUN TIME: 0 days 0 hours 0 minutes 3 seconds 792 msec
