                         Program Version 6.1.0  -  RELEASE   -
|  1> ! xtb2 Opt
|  2>
|  3> %maxcore 10000          # Alloue 10000 Mo de RAM pour le calcul
|  4>
|  5> * xyz 0 1               # DÃ©but des coordonnÃ©es : charge 0, multiplicitÃ© 1 (singulet)
|  6> P     -6.3756572725   10.9616146996    0.9252157322
|  7> C     -7.4810012725   15.5243186996    2.1080617322
|  8> C     -7.2120472725   15.1228516996    0.6610947322
|  9> C     -6.3316832725   13.8806856996    0.5760737322
| 10> C     -6.8175022725   12.7184726996    1.4664187322
| 11> C     -8.1785692725   14.3819546996    2.8455577322
| 12> C     -7.3348622725   13.1082616996    2.8618037322
| 13> C     -9.1729722725   11.8149066996    0.0428297322
| 14> C    -10.6121162725   11.7990426996    0.5732757322
| 15> C    -11.2235432725   10.4013856996    0.4724877322
| 16> C    -10.3082332725    9.3444566996    1.0880087322
| 17> C     -8.8914782725    9.4588996996    0.5207377322
| 18> C     -8.2866692725   10.8264876996    0.8546917322
| 19> C     -2.5823482725   12.6844706996    1.9197907322
| 20> C     -3.6442642725   12.0050976996    1.0606497322
| 21> C     -4.8960062725   11.6520136996    1.8760707322
| 22> C     -2.1591452725   11.7781096996    3.0789637322
| 23> C     -3.3112852725   11.1628056996    3.8889507322
| 24> C     -4.7201982725   11.4945786996    3.3991847322
| 25> H     -7.9054982725    5.2015576996    1.2894827322
| 26> H     -8.1263142725   16.4273456996    2.1203847322
| 27> H     -6.7311412725   15.9543496996    0.1045527322
| 28> H     -8.4061662725   14.6866746996    3.8879247322
| 29> H     -7.9138342725   12.2826856996    3.3242467322
| 30> H     -6.2616002725   13.5689306996   -0.4874972678
| 31> H     -3.8848172725   12.6190216996    0.1700947322
| 32> H     -1.6988122725   12.9840536996    1.3187537322
| 33> H     -1.4987252725   10.9716056996    2.6938917322
| 34> H     -3.1805922725   10.0631906996    3.9761397322
| 35> H     -5.5316242725   10.9669226996    3.9389727322
| 36> H     -8.8080982725    9.1775996996   -0.5503082678
| 37> H    -10.7160742725    8.3230326996    0.9458477322
| 38> H    -12.2188722725   10.3816436996    0.9643427322
| 39> H    -11.2517272725   12.5148156996    0.0153267322
| 40> H     -8.8829802725   12.8787236996    0.0108437322
| 41> C     -5.8500802725    9.2504376996    1.6043387322
| 42> C     -6.8027222725    8.0779506996    1.8292157322
| 43> C     -7.4723572725    7.9118226996    3.1731967322
| 44> C     -8.3325012725    6.7232716996    2.8163347322
| 45> C     -7.3798672725    5.8607096996    2.0082297322
| 46> C     -4.3863852725    8.7775296996    1.6593137322
| 47> C     -3.4316792725    8.9570896996    0.4911797322
| 48> C     -2.2041152725    8.1960666996    0.9617737322
| 49> C     -2.6891282725    7.3746246996    2.1472397322
| 50> N     -6.4211222725    6.7450376996    1.3503867322
| 51> N     -4.1368872725    7.4717296996    2.2638387322
| 52> B     -4.9451802725    6.3136416996    1.6059967322
| 53> F     -4.8207252725    5.1389766996    2.4637157322
| 54> F     -4.3905372725    5.9415566996    0.3092117322
| 55> H     -1.4268532725    8.8896086996    1.3428257322
| 56> H     -2.1900782725    6.4278846996    2.4307517322
| 57> H     -3.8419992725    8.4567966996   -0.4095292678
| 58> H     -8.0815812725    8.7900876996    3.4636037322
| 59> H     -8.7997712725    6.1992996996    3.6750297322
| 60> *
| 61>
| 62>                          ****END OF INPUT****
FINAL SINGLE POINT ENERGY       -86.566484963900
FINAL SINGLE POINT ENERGY       -86.686829862520
FINAL SINGLE POINT ENERGY       -86.790693473080
FINAL SINGLE POINT ENERGY       -86.915901947370
FINAL SINGLE POINT ENERGY       -87.044419930030
FINAL SINGLE POINT ENERGY       -87.145505212530
FINAL SINGLE POINT ENERGY       -87.226186831340
FINAL SINGLE POINT ENERGY       -87.321408618260
FINAL SINGLE POINT ENERGY       -87.378207630860
FINAL SINGLE POINT ENERGY       -87.437526471570
FINAL SINGLE POINT ENERGY       -87.684475786130
FINAL SINGLE POINT ENERGY       -87.684530727050
FINAL SINGLE POINT ENERGY       -87.684583965550
FINAL SINGLE POINT ENERGY       -87.684637602140
FINAL SINGLE POINT ENERGY       -87.684675567810
FINAL SINGLE POINT ENERGY       -87.684697420450
FINAL SINGLE POINT ENERGY       -87.684706782470
FINAL SINGLE POINT ENERGY       -87.684712517870
FINAL SINGLE POINT ENERGY       -87.684716142760
                    ***********************HURRAY********************

CARTESIAN COORDINATES (ANGSTROEM)
---------------------------------
  P    -6.361868   10.819523    1.431304
  C    -7.722514   13.980159    4.444310
  C    -7.570496   14.299630    3.103896
  C    -7.189620   13.324302    2.201526
  C    -6.977456   12.018610    2.641074
  C    -7.478060   12.689033    4.885593
  C    -7.095052   11.706279    3.990154
  C    -8.684729   11.449882   -0.070237
  C    -9.488792   11.297606   -1.185866
  C    -9.063944   10.524889   -2.254368
  C    -7.832314    9.886923   -2.206759
  C    -7.026556   10.027879   -1.094869
  C    -7.438629   10.832798   -0.031854
  C    -3.303428   12.707156   -0.519921
  C    -4.535917   12.129933   -0.264593
  C    -4.764907   11.527251    0.965167
  C    -2.313287   12.692576    0.448331
  C    -2.550637   12.105936    1.682906
  C    -3.777465   11.529653    1.947536
  H    -8.612457    6.328906    4.551137
  H    -8.022007   14.742695    5.147413
  H    -7.744611   15.309690    2.763787
  H    -7.582743   12.445886    5.931904
  H    -6.900163   10.700018    4.329840
  H    -7.054691   13.565967    1.154919
  H    -5.309656   12.135708   -1.019886
  H    -3.116940   13.168497   -1.478313
  H    -1.353093   13.140653    0.241617
  H    -1.778253   12.098115    2.436644
  H    -3.976950   11.059442    2.900791
  H    -6.074003    9.517399   -1.031384
  H    -7.508168    9.272960   -3.033520
  H    -9.697230   10.408973   -3.120720
  H   -10.454042   11.780671   -1.218382
  H    -9.019352   12.051067    0.763612
  C    -6.187774    9.213795    2.116470
  C    -7.326016    8.677470    2.781820
  C    -8.646835    9.138540    2.853088
  C    -9.357538    8.203944    3.600597
  C    -8.458871    7.215037    3.968064
  C    -5.063792    8.375256    1.883685
  C    -3.978096    8.462421    1.001130
  C    -3.217810    7.311781    1.182497
  C    -3.846480    6.563155    2.163939
  N    -7.242767    7.497883    3.465629
  N    -4.959472    7.196591    2.573148
  B    -5.911469    6.761797    3.706072
  F    -5.382862    7.161200    4.931519
  F    -6.089927    5.397131    3.697737
  H    -2.317891    7.048082    0.661978
  H    -3.572094    5.618637    2.589969
  H    -3.790069    9.246925    0.292565
  H    -9.029137   10.025766    2.380641
  H   -10.401102    8.234615    3.846187

FINAL SINGLE POINT ENERGY       -87.684718169770

DIPOLE MOMENT
-------------
                                X             Y             Z
Total Dipole Moment    :     -0.44700       4.61300      -2.58700
                        -----------------------------------------
Magnitude (a.u.)       :      5.30774
Magnitude (Debye)      :     13.49121

                             ****ORCA TERMINATED NORMALLY****
TOTAL RUN TIME: 0 days 0 hours 0 minutes 9 seconds 600 msec
