                         Program Version 6.1.0  -  RELEASE   -
|  1> # ----------------------------------------------------
|  2> # OPTIMISATION DU PROTOTYPE 1 : BODIPY de base
|  3> # ----------------------------------------------------
|  4> ! OPT GFN2-xTB
|  5>
|  6> # DÃ©finition des coordonnÃ©es du BODIPY de base
|  7>
|  8> *xyz 0 1 Bod_xtb_opt.xyz
|  9>
| 10>    C          -4.76656377204189      2.80000214614129     -0.14951372113028
| 11>   C          -2.24493960568262      3.02565474163532     -0.37504058158691
| 12>   C           0.29527285223500      2.86654670799072     -0.03280594156606
| 13>   C          -5.56196275119743      1.70618313498673      0.11801419625387
| 14>   C           1.06972268530737      1.76214443297082      0.25509526324264
| 15>   C           0.22620118401038      0.64002507879534      0.26069667691470
| 16>   C          -4.72251772587499      0.59377329615881      0.25374707367402
| 17>   N          -3.46382261074421      0.96901348108627      0.08220067236209
| 18>   C          -1.02724495093670      2.39122510087360     -0.16763140292098
| 19>   F          -2.23431120460124     -1.10377262819632      0.20320775640225
| 20>   F          -2.25462903836712      0.05508003045043     -1.74406575800676
| 21>   B          -2.23370609324827      0.13659800776206     -0.35753833816371
| 22>   I          -7.62912093440281      1.66029797684312      0.37220645384577
| 23>   I           3.11888475823806      1.69580202009106      0.61808260221518
| 24>   C          -3.44168806451002      2.32341488694095     -0.21118203822654
| 25>   N          -1.02207539463756      1.01925205876230      0.02125835659898
| 26>   H          -5.07850920066194      3.81526547759333     -0.29744838461560
| 27>   H          -2.27155049267979      4.08799306754605     -0.56083912006256
| 28>   H           0.59158173696204      3.89041892850129     -0.12343197016184
| 29>   H           0.48635371342254     -0.38723777732940      0.43033878360157
| 30>   H          -4.96830909058878     -0.43311816960376      0.44943342133017
| 31> *
| 32>
| 33>                          ****END OF INPUT****
FINAL SINGLE POINT ENERGY       -46.133078687450
FINAL SINGLE POINT ENERGY       -46.135176047560
FINAL SINGLE POINT ENERGY       -46.136503194250
FINAL SINGLE POINT ENERGY       -46.137306293850
FINAL SINGLE POINT ENERGY       -46.137928989440
FINAL SINGLE POINT ENERGY       -46.138263489720
FINAL SINGLE POINT ENERGY       -46.138452950260
FINAL SINGLE POINT ENERGY       -46.138562650910
FINAL SINGLE POINT ENERGY       -46.138619663990
FINAL SINGLE POINT ENERGY       -46.138639281060
FINAL SINGLE POINT ENERGY       -46.138646597190
FINAL SINGLE POINT ENERGY       -46.138649316790
FINAL SINGLE POINT ENERGY       -46.138649981750
                    ***********************HURRAY********************

CARTESIAN COORDINATES (ANGSTROEM)
---------------------------------
  C    -4.788512    2.850379   -0.090537
  C    -2.254068    3.068009   -0.047808
  C     0.283107    2.883753   -0.004088
  C    -5.590090    1.731202   -0.102820
  C     1.099189    1.775169    0.011763
  C     0.276893    0.637215   -0.000532
  C    -4.753056    0.604099   -0.087623
  N    -3.488422    0.996178   -0.066851
  C    -1.043666    2.393268   -0.026106
  F    -2.249119   -0.698666    1.087096
  F    -2.209509   -0.701934   -1.171721
  B    -2.234396    0.074575   -0.043530
  I    -7.672494    1.666900   -0.138168
  I     3.182242    1.738356    0.047729
  C    -3.455474    2.377226   -0.067644
  N    -0.992727    1.012734   -0.022919
  H    -5.094901    3.877379   -0.096798
  H    -2.261403    4.147275   -0.049209
  H     0.576109    3.914667   -0.000825
  H     0.559167   -0.398247    0.006225
  H    -5.021805   -0.434974   -0.090852

FINAL SINGLE POINT ENERGY       -46.138650144870

DIPOLE MOMENT
-------------
                                X             Y             Z
Total Dipole Moment    :     -0.01200       1.84200      -0.00300
                        -----------------------------------------
Magnitude (a.u.)       :      1.84204
Magnitude (Debye)      :      4.68210

                             ****ORCA TERMINATED NORMALLY****
TOTAL RUN TIME: 0 days 0 hours 0 minutes 1 seconds 400 msec
