                         Program Version 6.1.0  -  RELEASE   -
|  1> ! xtb2 Opt
|  2>
|  3> %maxcore 10000          # Alloue 10000 Mo de RAM pour le calcul
|  4>
|  5> * xyz 0 1               # DÃ©but des coordonnÃ©es : charge 0, multiplicitÃ© 1 (singulet)
|  6> C     -1.683354    4.843392   -0.000151
|  7> C     -2.837546    4.051034   -0.000321
|  8> C     -4.104586    4.590259   -0.000286
|  9> C     -4.846355    3.381748   -0.000255
| 10> C     -4.089204    2.231599   -0.000411
| 11> C     -0.518539    4.195236   -0.000168
| 12> C      0.764864    4.836725   -0.000539
| 13> C      1.602637    3.799891   -0.000738
| 14> C      0.859743    2.715450   -0.000449
| 15> N     -2.825390    2.744704   -0.000139
| 16> N     -0.410313    2.874704   -0.000415
| 17> B     -1.717250    2.221544   -0.000359
| 18> F     -2.675518    1.142797   -0.000232
| 19> F     -0.671102    1.274082   -0.000413
| 20> H      2.628991    3.914534   -0.001058
| 21> H      1.304247    1.749967   -0.000267
| 22> H      1.061930    5.824103   -0.000648
| 23> H     -4.430088    5.610503   -0.000283
| 24> H     -5.916254    3.364219   -0.000120
| 25> H     -4.406877    1.209818   -0.000675
| 26> H     -1.707943    5.906710   -0.000015
| 27>
| 28> *
| 29>
| 30>                          ****END OF INPUT****
FINAL SINGLE POINT ENERGY       -38.954459700720
FINAL SINGLE POINT ENERGY       -39.088863980250
FINAL SINGLE POINT ENERGY       -39.187837724880
FINAL SINGLE POINT ENERGY       -39.287124839560
FINAL SINGLE POINT ENERGY       -39.355150958240
FINAL SINGLE POINT ENERGY       -39.384541070100
FINAL SINGLE POINT ENERGY       -39.395213126380
FINAL SINGLE POINT ENERGY       -39.398230772160
FINAL SINGLE POINT ENERGY       -39.399695437250
FINAL SINGLE POINT ENERGY       -39.401214539640
FINAL SINGLE POINT ENERGY       -39.461968971040
FINAL SINGLE POINT ENERGY       -39.463514474070
FINAL SINGLE POINT ENERGY       -39.465200676130
FINAL SINGLE POINT ENERGY       -39.467993695820
FINAL SINGLE POINT ENERGY       -39.471428933410
FINAL SINGLE POINT ENERGY       -39.471388368560
FINAL SINGLE POINT ENERGY       -39.476804165490
FINAL SINGLE POINT ENERGY       -39.485050026970
FINAL SINGLE POINT ENERGY       -39.501071323480

CARTESIAN COORDINATES (ANGSTROEM)
---------------------------------
  C    -1.739676    4.871819   -0.322536
  C    -2.932928    4.174883   -0.180480
  C    -4.293172    4.566257   -0.068486
  C    -4.999079    3.449605    0.319823
  C    -4.065245    2.403497    0.424609
  C    -0.519693    4.225861   -0.090979
  C     0.773347    4.718602   -0.297802
  C     1.669532    3.702940    0.036321
  C     0.900895    2.625613    0.456859
  N    -2.859064    2.814640    0.081469
  N    -0.416728    2.876824    0.392311
  B    -1.521314    2.027950   -0.204563
  F    -1.703505    0.775426    0.389588
  F    -1.239491    1.828869   -1.528506
  H     2.737174    3.772518    0.000562
  H     1.248985    1.704578    0.892112
  H     1.029738    5.690716   -0.674650
  H    -4.658451    5.559614   -0.238288
  H    -6.051710    3.401204    0.510665
  H    -4.243900    1.375908    0.685632
  H    -1.733624    5.915695   -0.591604

FINAL SINGLE POINT ENERGY       -39.511355428910

DIPOLE MOMENT
-------------
                                X             Y             Z
Total Dipole Moment    :     -0.13400       2.00300       0.55600
                        -----------------------------------------
Magnitude (a.u.)       :      2.08305
Magnitude (Debye)      :      5.29469

                             ****ORCA TERMINATED NORMALLY****
TOTAL RUN TIME: 0 days 0 hours 0 minutes 3 seconds 923 msec
