                         Program Version 6.1.0  -  RELEASE   -
|  1> # ----------------------------------------------------
|  2> # OPTIMISATION DU PROTOTYPE 1 : BODIPY de base
|  3> # ----------------------------------------------------
|  4> ! OPT GFN2-xTB
|  5>
|  6> # DÃ©finition des coordonnÃ©es du BODIPY de base
|  7>
|  8> *xyz 0 1 Bod_xtb_opt.xyz
|  9>
| 10>    P          -6.36186826501938     10.81952313594482      1.43130376515350
| 11>   C          -7.72251428724534     13.98015905274315      4.44430994853092
| 12>   C          -7.57049641152292     14.29962959090705      3.10389550967823
| 13>   C          -7.18961985796610     13.32430166085772      2.20152623255831
| 14>   C          -6.97745598402598     12.01860999557247      2.64107416758334
| 15>   C          -7.47805986392518     12.68903324027277      4.88559250407851
| 16>   C          -7.09505224252417     11.70627917576567      3.99015366812287
| 17>   C          -8.68472882578875     11.44988170035440     -0.07023703125136
| 18>   C          -9.48879223858486     11.29760645597458     -1.18586631268205
| 19>   C          -9.06394368660150     10.52488854449572     -2.25436846514971
| 20>   C          -7.83231351426904      9.88692267919577     -2.20675910035593
| 21>   C          -7.02655566323920     10.02787873107737     -1.09486887148291
| 22>   C          -7.43862864091179     10.83279765125778     -0.03185428484676
| 23>   C          -3.30342796711783     12.70715567589575     -0.51992119559294
| 24>   C          -4.53591687479317     12.12993293781207     -0.26459259210255
| 25>   C          -4.76490709049534     11.52725110366957      0.96516696339850
| 26>   C          -2.31328694821337     12.69257619508257      0.44833102857400
| 27>   C          -2.55063681699616     12.10593572809602      1.68290640636504
| 28>   C          -3.77746495869905     11.52965311085835      1.94753573622499
| 29>   H          -8.61245673720612      6.32890563012751      4.55113690468356
| 30>   H          -8.02200745784968     14.74269451457016      5.14741331430136
| 31>   H          -7.74461088693730     15.30968997662535      2.76378677686830
| 32>   H          -7.58274319532524     12.44588572143178      5.93190432284583
| 33>   H          -6.90016292448092     10.70001824326144      4.32984031851366
| 34>   H          -7.05469137567540     13.56596745673200      1.15491911715567
| 35>   H          -5.30965579845840     12.13570784166906     -1.01988615644896
| 36>   H          -3.11693982707488     13.16849749378768     -1.47831293816865
| 37>   H          -1.35309335294282     13.14065287029224      0.24161682332689
| 38>   H          -1.77825296779170     12.09811496658433      2.43664358084207
| 39>   H          -3.97695006672556     11.05944218951819      2.90079093221696
| 40>   H          -6.07400316983589      9.51739878006467     -1.03138360873395
| 41>   H          -7.50816821723283      9.27296014684686     -3.03351984358856
| 42>   H          -9.69723010827299     10.40897265188854     -3.12071956342433
| 43>   H         -10.45404231070492     11.78067121147182     -1.21838228014544
| 44>   H          -9.01935186466333     12.05106720043155      0.76361186186338
| 45>   C          -6.18777441160687      9.21379533032335      2.11646969018512
| 46>   C          -7.32601606290350      8.67747025410640      2.78182018876210
| 47>   C          -8.64683458708542      9.13854027670321      2.85308789129119
| 48>   C          -9.35753790934363      8.20394403626816      3.60059709204205
| 49>   C          -8.45887139576589      7.21503670539113      3.96806400632036
| 50>   C          -5.06379222090366      8.37525649551363      1.88368537215040
| 51>   C          -3.97809602251742      8.46242099051413      1.00112971719806
| 52>   C          -3.21781006645527      7.31178062214623      1.18249723978819
| 53>   C          -3.84647988857793      6.56315526212678      2.16393854055825
| 54>   N          -7.24276692233802      7.49788315432007      3.46562856506143
| 55>   N          -4.95947160260727      7.19659148133849      2.57314809910542
| 56>   B          -5.91146933252403      6.76179736079281      3.70607242707368
| 57>   F          -5.38286234032855      7.16120047605757      4.93151853396412
| 58>   F          -6.08992742573910      5.39713121839260      3.69773732167687
| 59>   H          -2.31789138816963      7.04808167570224      0.66197770748925
| 60>   H          -3.57209371594556      5.61863729433910      2.58996920218531
| 61>   H          -3.79006880758986      9.24692512061605      0.29256499890537
| 62>   H          -9.02913706345527     10.02576639441967      2.38064074104048
| 63>   H         -10.40110215202595      8.23461536819160      3.84618656509054
| 64> *
| 65>
| 66>                          ****END OF INPUT****
FINAL SINGLE POINT ENERGY       -87.684718169800
                    ***********************HURRAY********************

CARTESIAN COORDINATES (ANGSTROEM)
---------------------------------
  P    -6.362013   10.819443    1.431838
  C    -7.722965   13.981494    4.443176
  C    -7.570400   14.300353    3.102688
  C    -7.189176   13.324646    2.200875
  C    -6.977746   12.019046    2.641031
  C    -7.479312   12.690425    4.885032
  C    -7.096336   11.707185    3.990112
  C    -8.684830   11.449100   -0.069734
  C    -9.488672   11.296850   -1.185537
  C    -9.063034   10.525164   -2.254469
  C    -7.830887    9.888222   -2.207274
  C    -7.025352   10.029090   -1.095204
  C    -7.438410   10.832696   -0.031589
  C    -3.304082   12.707562   -0.519636
  C    -4.536556   12.130410   -0.264030
  C    -4.765124   11.527125    0.965504
  C    -2.313383   12.691993    0.448039
  C    -2.550337   12.104795    1.682445
  C    -3.777170   11.528677    1.947372
  H    -8.612256    6.327076    4.550330
  H    -8.022995   14.744254    5.145802
  H    -7.744005   15.310341    2.762096
  H    -7.584692   12.447651    5.931359
  H    -6.901853   10.701027    4.330291
  H    -7.053808   13.565772    1.154211
  H    -5.310677   12.136702   -1.018947
  H    -3.117809   13.169130   -1.477958
  H    -1.353094   13.139667    0.240915
  H    -1.777374   12.096036    2.435599
  H    -3.976336   11.057806    2.900374
  H    -6.072339    9.519435   -1.032071
  H    -7.506168    9.275113   -3.034438
  H    -9.696143   10.409367   -3.120980
  H   -10.454254   11.779241   -1.217991
  H    -9.020029   12.049507    0.764428
  C    -6.187907    9.213847    2.117359
  C    -7.325774    8.677584    2.783417
  C    -8.646659    9.138521    2.855392
  C    -9.357179    8.203539    3.602516
  C    -8.458553    7.214009    3.968505
  C    -5.064001    8.375268    1.884062
  C    -3.978692    8.462525    1.001041
  C    -3.218008    7.312130    1.182184
  C    -3.846585    6.562983    2.163268
  N    -7.242483    7.497559    3.466509
  N    -4.959324    7.196390    2.573218
  B    -5.911328    6.760710    3.705645
  F    -5.382344    7.158465    4.931482
  F    -6.090597    5.396159    3.695919
  H    -2.318147    7.048697    0.661434
  H    -3.572240    5.618138    2.588606
  H    -3.790760    9.247512    0.293004
  H    -9.029163   10.026170    2.383930
  H   -10.400675    8.234081    3.848375

FINAL SINGLE POINT ENERGY       -87.684719166340

DIPOLE MOMENT
-------------
                                X             Y             Z
Total Dipole Moment    :     -0.44800       4.61400      -2.58700
                        -----------------------------------------
Magnitude (a.u.)       :      5.30870
Magnitude (Debye)      :     13.49364

                             ****ORCA TERMINATED NORMALLY****
TOTAL RUN TIME: 0 days 0 hours 0 minutes 0 seconds 371 msec
